<VTKFile type="UnstructuredGrid" version="1.0" byte_order="LittleEndian" header_type="UInt64"> 
  <UnstructuredGrid> 
    <FieldData> 
      <DataArray type="Float64" Name="TimeValue" NumberOfTuples="1" format="ascii"> 
        1 
      </DataArray> 
    </FieldData> 
 <Piece NumberOfPoints="   4" NumberOfCells="   3"> 
      <PointData Vectors="Nodal Vectors"> 
        <DataArray type="Float32" Name="Displacement" NumberOfComponents="3" format="ascii" > 
             0.000e+00    0.000e+00   0.000e+00 
             1.799e-04   -5.997e-05   0.000e+00 
             8.997e-05   -4.111e-02   0.000e+00 
             0.000e+00    0.000e+00   0.000e+00 
        </DataArray> 
        <DataArray type="Float32" Name="Forces" NumberOfComponents="3" format="ascii"> 
            -1.268e+02    5.685e+01   0.000e+00 
             1.000e+02    0.000e+00   0.000e+00 
             0.000e+00   -7.500e+01   0.000e+00 
            -2.132e+02    1.815e+01   0.000e+00 
        </DataArray> 
      </PointData> 
      <Points> 
        <DataArray type="Float32" Name="Points" NumberOfComponents="3" format="ascii"> 
             0.000e+00    0.000e+00   0.000e+00 
             0.000e+00    1.000e+01   0.000e+00 
             4.000e+00    1.000e+01   0.000e+00 
             8.000e+00    1.000e+01   0.000e+00 
        </DataArray> 
      </Points> 
      <Cells> 
        <DataArray type="Int64" Name="connectivity" format="ascii"> 
                0     1     1     2     2     3
                   </DataArray> 
        <DataArray type="Int64" Name="offsets" format="ascii"> 
                          2               4               6
        </DataArray> 
        <DataArray type="UInt8" Name="types" format="ascii"> 
             3  3  3
        </DataArray> 
      </Cells> 
    </Piece> 
  </UnstructuredGrid> 
</VTKFile> 
