<VTKFile type="UnstructuredGrid" version="1.0" byte_order="LittleEndian" header_type="UInt64"> 
  <UnstructuredGrid> 
    <FieldData> 
      <DataArray type="Float64" Name="TimeValue" NumberOfTuples="1" format="ascii"> 
        0 
      </DataArray> 
    </FieldData> 
 <Piece NumberOfPoints="   4" NumberOfCells="   5"> 
      <PointData Vectors="Nodal Vectors"> 
        <DataArray type="Float32" Name="Displacement" NumberOfComponents="3" format="ascii" > 
             0.000e+00    0.000e+00   0.000e+00 
             0.000e+00    0.000e+00   0.000e+00 
             0.000e+00    0.000e+00   0.000e+00 
             0.000e+00    0.000e+00   0.000e+00 
        </DataArray> 
        <DataArray type="Float32" Name="Forces" NumberOfComponents="3" format="ascii"> 
             0.000e+00   -0.000e+00   0.000e+00 
             0.000e+00    0.000e+00   0.000e+00 
            -0.000e+00   -0.000e+00   0.000e+00 
             0.000e+00    0.000e+00   0.000e+00 
        </DataArray> 
      </PointData> 
      <CellData Vectors="Element Vectors"> 
        <DataArray type="Float32" Name="Member Force" NumberOfComponents="3" format="ascii"> 
             0.000e+00   0.000e+0    0.000e+00 
            -0.000e+00   0.000e+0    0.000e+00 
             0.000e+00   0.000e+0    0.000e+00 
             0.000e+00   0.000e+0    0.000e+00 
             0.000e+00   0.000e+0    0.000e+00 
        </DataArray> 
        <DataArray type="Float32" Name="Member Stress" NumberOfComponents="3" format="ascii"> 
              0.000e+00   0.000e+00   0.000e+00 
             -0.000e+00   0.000e+00   0.000e+00 
              0.000e+00   0.000e+00   0.000e+00 
              0.000e+00   0.000e+00   0.000e+00 
              0.000e+00   0.000e+00   0.000e+00 
        </DataArray> 
      </CellData> 
      <Points> 
        <DataArray type="Float32" Name="Points" NumberOfComponents="3" format="ascii"> 
             0.000e+00    0.000e+00   0.000e+00 
             5.000e+00    0.000e+00   0.000e+00 
             1.000e+01    0.000e+00   0.000e+00 
             5.000e+00   -2.000e+00   0.000e+00 
        </DataArray> 
      </Points> 
      <Cells> 
        <DataArray type="Int64" Name="connectivity" format="ascii"> 
                0     1     1     2     0     3
     3     2     3     1
                   </DataArray> 
        <DataArray type="Int64" Name="offsets" format="ascii"> 
                          2               4               6               8              10
        </DataArray> 
        <DataArray type="UInt8" Name="types" format="ascii"> 
             3  3  3  3  3
        </DataArray> 
      </Cells> 
    </Piece> 
  </UnstructuredGrid> 
</VTKFile> 
