<VTKFile type="UnstructuredGrid" version="1.0" byte_order="LittleEndian" header_type="UInt64"> 
  <UnstructuredGrid> 
    <FieldData> 
      <DataArray type="Float64" Name="TimeValue" NumberOfTuples="1" format="ascii"> 
        1 
      </DataArray> 
    </FieldData> 
 <Piece NumberOfPoints="   5" NumberOfCells="   5"> 
      <PointData Vectors="Nodal Vectors"> 
        <DataArray type="Float32" Name="Displacement" NumberOfComponents="3" format="ascii" > 
             0.000e+00    0.000e+00   0.000e+00 
             0.000e+00    0.000e+00   0.000e+00 
             1.854e-01    4.187e-04   0.000e+00 
             1.855e-01   -1.307e-04   0.000e+00 
             1.866e-01    7.137e-04   0.000e+00 
        </DataArray> 
        <DataArray type="Float32" Name="Forces" NumberOfComponents="3" format="ascii"> 
            -1.061e+02   -1.570e+02   0.000e+00 
            -8.595e+01    4.903e+01   0.000e+00 
             8.000e+01    0.000e+00   0.000e+00 
             0.000e+00    0.000e+00   0.000e+00 
             4.000e+01    0.000e+00   0.000e+00 
        </DataArray> 
      </PointData> 
      <Points> 
        <DataArray type="Float32" Name="Points" NumberOfComponents="3" format="ascii"> 
             0.000e+00    0.000e+00   0.000e+00 
             9.000e+00    0.000e+00   0.000e+00 
             0.000e+00    6.000e+00   0.000e+00 
             9.000e+00    6.000e+00   0.000e+00 
             0.000e+00    1.200e+01   0.000e+00 
        </DataArray> 
      </Points> 
      <Cells> 
        <DataArray type="Int64" Name="connectivity" format="ascii"> 
                0     2     1     3     2     4
     2     3     3     4        </DataArray> 
        <DataArray type="Int64" Name="offsets" format="ascii"> 
               2    4    6    8   10
        </DataArray> 
        <DataArray type="UInt8" Name="types" format="ascii"> 
             3  3  3  3  3
        </DataArray> 
      </Cells> 
    </Piece> 
  </UnstructuredGrid> 
</VTKFile> 
