<VTKFile type="UnstructuredGrid" version="1.0" byte_order="LittleEndian" header_type="UInt64"> 
  <UnstructuredGrid> 
    <FieldData> 
      <DataArray type="Float64" Name="TimeValue" NumberOfTuples="1" format="ascii"> 
        0 
      </DataArray> 
    </FieldData> 
 <Piece NumberOfPoints="  12" NumberOfCells="  21"> 
      <PointData Vectors="Nodal Vectors"> 
        <DataArray type="Float32" Name="Displacement" NumberOfComponents="3" format="ascii" > 
             0.000e+00    0.000e+00    0.000e+00 
             0.000e+00   -0.000e+00    0.000e+00 
             0.000e+00   -0.000e+00    0.000e+00 
             0.000e+00   -0.000e+00    0.000e+00 
             0.000e+00   -0.000e+00    0.000e+00 
             0.000e+00   -0.000e+00    0.000e+00 
             0.000e+00   -0.000e+00    0.000e+00 
             0.000e+00   -0.000e+00    0.000e+00 
             0.000e+00   -0.000e+00    0.000e+00 
             0.000e+00   -0.000e+00    0.000e+00 
             0.000e+00   -0.000e+00    0.000e+00 
             0.000e+00    0.000e+00    0.000e+00 
        </DataArray> 
        <DataArray type="Float32" Name="Forces" NumberOfComponents="3" format="ascii"> 
             0.000e+00    0.000e+00    0.000e+00 
             0.000e+00    0.000e+00    0.000e+00 
             0.000e+00   -0.000e+00    0.000e+00 
             0.000e+00    0.000e+00    0.000e+00 
             0.000e+00   -0.000e+00    0.000e+00 
             0.000e+00    0.000e+00    0.000e+00 
             0.000e+00   -0.000e+00    0.000e+00 
             0.000e+00    0.000e+00    0.000e+00 
             0.000e+00   -0.000e+00    0.000e+00 
             0.000e+00    0.000e+00    0.000e+00 
             0.000e+00   -0.000e+00    0.000e+00 
             0.000e+00    0.000e+00    0.000e+00 
        </DataArray> 
      </PointData> 
      <CellData Vectors="Element Vectors"> 
        <DataArray type="Float32" Name="Member Force" NumberOfComponents="3" format="ascii"> 
            -0.000e+00   0.000e+0    0.000e+00 
             0.000e+00   0.000e+0    0.000e+00 
            -0.000e+00   0.000e+0    0.000e+00 
             0.000e+00   0.000e+0    0.000e+00 
             0.000e+00   0.000e+0    0.000e+00 
            -0.000e+00   0.000e+0    0.000e+00 
             0.000e+00   0.000e+0    0.000e+00 
            -0.000e+00   0.000e+0    0.000e+00 
             0.000e+00   0.000e+0    0.000e+00 
             0.000e+00   0.000e+0    0.000e+00 
            -0.000e+00   0.000e+0    0.000e+00 
             0.000e+00   0.000e+0    0.000e+00 
            -0.000e+00   0.000e+0    0.000e+00 
             0.000e+00   0.000e+0    0.000e+00 
             0.000e+00   0.000e+0    0.000e+00 
            -0.000e+00   0.000e+0    0.000e+00 
             0.000e+00   0.000e+0    0.000e+00 
             0.000e+00   0.000e+0    0.000e+00 
            -0.000e+00   0.000e+0    0.000e+00 
             0.000e+00   0.000e+0    0.000e+00 
            -0.000e+00   0.000e+0    0.000e+00 
        </DataArray> 
        <DataArray type="Float32" Name="Member Stress" NumberOfComponents="3" format="ascii"> 
             -0.000e+00   0.000e+00   0.000e+00 
              0.000e+00   0.000e+00   0.000e+00 
             -0.000e+00   0.000e+00   0.000e+00 
              0.000e+00   0.000e+00   0.000e+00 
              0.000e+00   0.000e+00   0.000e+00 
             -0.000e+00   0.000e+00   0.000e+00 
              0.000e+00   0.000e+00   0.000e+00 
             -0.000e+00   0.000e+00   0.000e+00 
              0.000e+00   0.000e+00   0.000e+00 
              0.000e+00   0.000e+00   0.000e+00 
             -0.000e+00   0.000e+00   0.000e+00 
              0.000e+00   0.000e+00   0.000e+00 
             -0.000e+00   0.000e+00   0.000e+00 
              0.000e+00   0.000e+00   0.000e+00 
              0.000e+00   0.000e+00   0.000e+00 
             -0.000e+00   0.000e+00   0.000e+00 
              0.000e+00   0.000e+00   0.000e+00 
              0.000e+00   0.000e+00   0.000e+00 
             -0.000e+00   0.000e+00   0.000e+00 
              0.000e+00   0.000e+00   0.000e+00 
             -0.000e+00   0.000e+00   0.000e+00 
        </DataArray> 
      </CellData> 
      <Points> 
        <DataArray type="Float32" Name="Points" NumberOfComponents="3" format="ascii"> 
             0.000e+00    0.000e+00    0.000e+00 
             1.000e+01    5.000e+00    0.000e+00 
             1.000e+01    0.000e+00    0.000e+00 
             2.000e+01    8.000e+00    0.000e+00 
             2.000e+01    0.000e+00    0.000e+00 
             3.000e+01    9.000e+00    0.000e+00 
             3.000e+01    0.000e+00    0.000e+00 
             4.000e+01    8.000e+00    0.000e+00 
             4.000e+01    0.000e+00    0.000e+00 
             5.000e+01    5.000e+00    0.000e+00 
             5.000e+01    0.000e+00    0.000e+00 
             6.000e+01    0.000e+00    0.000e+00 
        </DataArray> 
      </Points> 
      <Cells> 
        <DataArray type="Int64" Name="connectivity" format="ascii"> 
                0     2     2     4     4     6
     6     8     8    10    10    11
     0     1     1     3     3     5
     5     7     7     9     9    11
     1     2     3     4     5     6
     7     8     9    10     1     4
     3     6     6     7     8     9
                   </DataArray> 
        <DataArray type="Int64" Name="offsets" format="ascii"> 
                          2               4               6               8              10              12
                         14              16              18              20              22              24
                         26              28              30              32              34              36
                         38              40              42
        </DataArray> 
        <DataArray type="UInt8" Name="types" format="ascii"> 
             3  3  3  3  3  3
             3  3  3  3  3  3
             3  3  3  3  3  3
             3  3  3
        </DataArray> 
      </Cells> 
    </Piece> 
  </UnstructuredGrid> 
</VTKFile> 
