<VTKFile type="UnstructuredGrid" version="1.0" byte_order="LittleEndian" header_type="UInt64"> 
  <UnstructuredGrid> 
    <FieldData> 
      <DataArray type="Float64" Name="TimeValue" NumberOfTuples="1" format="ascii"> 
        1 
      </DataArray> 
    </FieldData> 
 <Piece NumberOfPoints="  35" NumberOfCells="  24"> 
      <PointData Vectors="Nodal Vectors"> 
        <DataArray type="Float32" Name="Displacement" NumberOfComponents="3" format="ascii" > 
             0.000e+00    6.816e-03   0.000e+00 
             0.000e+00    5.382e-03   0.000e+00 
             0.000e+00    4.389e-03   0.000e+00 
             0.000e+00    3.681e-03   0.000e+00 
             0.000e+00    3.273e-03   0.000e+00 
             0.000e+00    3.133e-03   0.000e+00 
             0.000e+00    3.052e-03   0.000e+00 
            -3.024e-04    6.511e-03   0.000e+00 
            -3.624e-04    5.123e-03   0.000e+00 
            -2.959e-04    4.124e-03   0.000e+00 
            -2.090e-04    3.373e-03   0.000e+00 
            -1.384e-04    2.912e-03   0.000e+00 
            -1.465e-04    2.763e-03   0.000e+00 
            -3.785e-04    2.793e-03   0.000e+00 
            -8.655e-04    6.008e-03   0.000e+00 
            -8.123e-04    4.658e-03   0.000e+00 
            -7.122e-04    3.646e-03   0.000e+00 
            -5.802e-04    2.811e-03   0.000e+00 
            -4.752e-04    2.221e-03   0.000e+00 
            -4.675e-04    1.963e-03   0.000e+00 
            -6.921e-04    2.104e-03   0.000e+00 
            -1.585e-03    1.933e-03   0.000e+00 
            -1.341e-03    1.587e-03   0.000e+00 
            -1.158e-03    1.281e-03   0.000e+00 
            -1.029e-03    1.033e-03   0.000e+00 
            -9.692e-04    8.863e-04   0.000e+00 
            -9.708e-04    9.004e-04   0.000e+00 
            -9.632e-04    1.142e-03   0.000e+00 
            -1.800e-03    0.000e+00   0.000e+00 
            -1.519e-03    0.000e+00   0.000e+00 
            -1.341e-03    0.000e+00   0.000e+00 
            -1.241e-03    0.000e+00   0.000e+00 
            -1.206e-03    0.000e+00   0.000e+00 
            -1.179e-03    0.000e+00   0.000e+00 
            -1.056e-03    0.000e+00   0.000e+00 
        </DataArray> 
        <DataArray type="Float32" Name="Forces" NumberOfComponents="3" format="ascii"> 
            -3.639e+00    3.750e+01   0.000e+00 
            -2.795e+00    0.000e+00   0.000e+00 
            -1.126e+00    0.000e+00   0.000e+00 
            -5.910e-01    0.000e+00   0.000e+00 
             2.454e-01    0.000e+00   0.000e+00 
             3.083e+00    0.000e+00   0.000e+00 
             4.823e+00    0.000e+00   0.000e+00 
             0.000e+00    7.500e+01   0.000e+00 
             0.000e+00    0.000e+00   0.000e+00 
             0.000e+00    0.000e+00   0.000e+00 
             0.000e+00    0.000e+00   0.000e+00 
             0.000e+00    0.000e+00   0.000e+00 
             0.000e+00    0.000e+00   0.000e+00 
             0.000e+00    0.000e+00   0.000e+00 
             0.000e+00    3.750e+01   0.000e+00 
             0.000e+00    0.000e+00   0.000e+00 
             0.000e+00    0.000e+00   0.000e+00 
             0.000e+00    0.000e+00   0.000e+00 
             0.000e+00    0.000e+00   0.000e+00 
             0.000e+00    0.000e+00   0.000e+00 
             0.000e+00    0.000e+00   0.000e+00 
             0.000e+00    0.000e+00   0.000e+00 
             0.000e+00    0.000e+00   0.000e+00 
             0.000e+00    0.000e+00   0.000e+00 
             0.000e+00    0.000e+00   0.000e+00 
             0.000e+00    0.000e+00   0.000e+00 
             0.000e+00    0.000e+00   0.000e+00 
             0.000e+00    0.000e+00   0.000e+00 
             0.000e+00   -1.704e+01   0.000e+00 
             0.000e+00   -3.233e+01   0.000e+00 
             0.000e+00   -2.656e+01   0.000e+00 
             0.000e+00   -2.317e+01   0.000e+00 
             0.000e+00   -1.963e+01   0.000e+00 
             0.000e+00   -1.871e+01   0.000e+00 
             0.000e+00   -1.255e+01   0.000e+00 
        </DataArray> 
        <DataArray type="Float32" Name="Stress" NumberOfComponents="3" format="ascii"> 
             1.127e+01   -4.262e+01   -4.801e+00 
             2.094e+01    1.350e+01   -1.422e+01 
             3.571e+01    1.001e+01   -6.015e-01 
             3.433e+01    1.712e+01   -2.170e+01 
             1.128e+02    1.788e+01   -4.504e+00 
             1.071e+02    4.070e+01   -3.343e+01 
             1.905e+02    1.730e+02    2.197e+01 
             1.107e+01    2.882e+00   -7.659e-01 
             1.040e+01    1.035e+01   -7.947e+00 
             1.678e+01    6.369e+00   -2.604e+00 
             1.568e+01    1.844e+01   -2.334e+01 
             5.132e+01    1.481e+01   -1.380e+01 
             5.650e+01    3.136e+01   -1.481e+01 
             7.370e+01    1.926e+01   -3.389e+00 
             5.067e-01    7.977e-01    7.556e-01 
            -8.014e-01    1.162e+00    1.023e+00 
            -2.455e+00    2.917e+00    1.237e+00 
            -1.693e+01    1.173e+00   -4.735e+00 
            -3.068e+01   -3.840e+00    4.048e+00 
            -9.675e+00    1.423e+00    1.110e+01 
            -1.392e+01    1.368e+00    1.141e+01 
             2.769e+00   -7.460e-02    2.155e+00 
            -5.288e-02    2.982e+00    4.701e+00 
            -2.742e+00   -2.579e+00    5.826e+00 
            -7.622e+00   -1.449e+00    9.366e+00 
            -7.912e+00   -9.997e+00    1.114e+01 
            -9.958e+00   -1.137e+00    1.779e+01 
            -5.386e+00   -9.942e+00    1.329e+01 
             1.717e+01    1.916e+00    7.575e+00 
            -1.052e+00    4.584e+00    7.679e+00 
             9.302e-01   -5.693e+00    4.282e+00 
            -5.349e+00   -6.154e+00    1.314e+01 
             4.326e+00   -1.940e+01    8.459e+00 
            -1.320e+01   -5.951e+00    1.823e+01 
            -8.937e+01   -5.674e+01   -1.961e+01 
        </DataArray> 
        <DataArray type="Float32" Name="Principal Stress" NumberOfComponents="3" format="ascii"> 
             1.169e+01  -4.305e+01   4.993e+01 
             3.191e+01   2.520e+00   3.073e+01 
             3.573e+01   9.995e+00   3.193e+01 
             4.907e+01   2.381e+00   4.792e+01 
             1.131e+02   1.767e+01   1.053e+02 
             1.210e+02   2.678e+01   1.101e+02 
             2.054e+02   1.581e+02   1.863e+02 
             1.114e+01   2.811e+00   1.003e+01 
             1.832e+01   2.427e+00   1.724e+01 
             1.739e+01   5.754e+00   1.535e+01 
             4.044e+01  -6.317e+00   4.394e+01 
             5.594e+01   1.018e+01   5.161e+01 
             6.336e+01   2.450e+01   5.534e+01 
             7.391e+01   1.905e+01   6.647e+01 
             1.422e+00  -1.173e-01   1.484e+00 
             1.598e+00  -1.238e+00   2.462e+00 
             3.188e+00  -2.726e+00   5.127e+00 
             2.337e+00  -1.810e+01   1.937e+01 
            -3.243e+00  -3.128e+01   2.979e+01 
             8.281e+00  -1.653e+01   2.188e+01 
             7.457e+00  -2.000e+01   2.460e+01 
             3.930e+00  -1.235e+00   4.671e+00 
             6.405e+00  -3.476e+00   8.681e+00 
             3.165e+00  -8.487e+00   1.044e+01 
             5.326e+00  -1.440e+01   1.767e+01 
             2.237e+00  -2.015e+01   2.135e+01 
             1.278e+01  -2.388e+01   3.223e+01 
             5.818e+00  -2.115e+01   2.458e+01 
             2.029e+01  -1.207e+00   2.092e+01 
             9.946e+00  -6.414e+00   1.428e+01 
             3.032e+00  -7.795e+00   9.674e+00 
             7.398e+00  -1.890e+01   2.349e+01 
             7.032e+00  -2.211e+01   2.634e+01 
             9.010e+00  -2.816e+01   3.358e+01 
            -4.755e+01  -9.856e+01   8.537e+01 
        </DataArray> 
      </PointData> 
      <Points> 
        <DataArray type="Float32" Name="Points" NumberOfComponents="3" format="ascii"> 
             0.000e+00    6.000e+00   0.000e+00 
             0.000e+00    4.500e+00   0.000e+00 
             0.000e+00    3.400e+00   0.000e+00 
             0.000e+00    2.500e+00   0.000e+00 
             0.000e+00    1.800e+00   0.000e+00 
             0.000e+00    1.350e+00   0.000e+00 
             0.000e+00    1.000e+00   0.000e+00 
             2.500e+00    6.000e+00   0.000e+00 
             1.865e+00    4.477e+00   0.000e+00 
             1.399e+00    3.360e+00   0.000e+00 
             1.018e+00    2.447e+00   0.000e+00 
             7.215e-01    1.736e+00   0.000e+00 
             5.309e-01    1.279e+00   0.000e+00 
             3.827e-01    9.239e-01   0.000e+00 
             5.000e+00    6.000e+00   0.000e+00 
             3.712e+00    4.412e+00   0.000e+00 
             2.768e+00    3.248e+00   0.000e+00 
             1.995e+00    2.295e+00   0.000e+00 
             1.394e+00    1.554e+00   0.000e+00 
             1.008e+00    1.078e+00   0.000e+00 
             7.071e-01    7.071e-01   0.000e+00 
             5.000e+00    2.000e+00   0.000e+00 
             3.777e+00    1.515e+00   0.000e+00 
             2.880e+00    1.159e+00   0.000e+00 
             2.147e+00    8.679e-01   0.000e+00 
             1.576e+00    6.415e-01   0.000e+00 
             1.209e+00    4.959e-01   0.000e+00 
             9.239e-01    3.827e-01   0.000e+00 
             5.000e+00    0.000e+00   0.000e+00 
             3.800e+00    0.000e+00   0.000e+00 
             2.920e+00    0.000e+00   0.000e+00 
             2.200e+00    0.000e+00   0.000e+00 
             1.640e+00    0.000e+00   0.000e+00 
             1.280e+00    0.000e+00   0.000e+00 
             1.000e+00    0.000e+00   0.000e+00 
        </DataArray> 
      </Points> 
      <Cells> 
        <DataArray type="Int64" Name="connectivity" format="ascii"> 
                0     1     8     7     1     2
     9     8     2     3    10     9
     3     4    11    10     4     5
    12    11     5     6    13    12
     7     8    15    14     8     9
    16    15     9    10    17    16
    10    11    18    17    11    12
    19    18    12    13    20    19
    14    15    22    21    15    16
    23    22    16    17    24    23
    17    18    25    24    18    19
    26    25    19    20    27    26
    21    22    29    28    22    23
    30    29    23    24    31    30
    24    25    32    31    25    26
    33    32    26    27    34    33
                   </DataArray> 
        <DataArray type="Int64" Name="offsets" format="ascii"> 
                          4               8              12              16              20              24
                         28              32              36              40              44              48
                         52              56              60              64              68              72
                         76              80              84              88              92              96
        </DataArray> 
        <DataArray type="UInt8" Name="types" format="ascii"> 
             9  9  9  9  9  9
             9  9  9  9  9  9
             9  9  9  9  9  9
             9  9  9  9  9  9
        </DataArray> 
      </Cells> 
    </Piece> 
  </UnstructuredGrid> 
</VTKFile> 
