<VTKFile type="UnstructuredGrid" version="1.0" byte_order="LittleEndian" header_type="UInt64"> 
  <UnstructuredGrid> 
    <FieldData> 
      <DataArray type="Float64" Name="TimeValue" NumberOfTuples="1" format="ascii"> 
        0 
      </DataArray> 
    </FieldData> 
 <Piece NumberOfPoints="  35" NumberOfCells="  24"> 
      <PointData Vectors="Nodal Vectors"> 
        <DataArray type="Float32" Name="Displacement" NumberOfComponents="3" format="ascii" > 
             0.000e+00    0.000e+00   0.000e+00 
             0.000e+00    0.000e+00   0.000e+00 
             0.000e+00    0.000e+00   0.000e+00 
             0.000e+00    0.000e+00   0.000e+00 
             0.000e+00    0.000e+00   0.000e+00 
             0.000e+00    0.000e+00   0.000e+00 
             0.000e+00    0.000e+00   0.000e+00 
            -0.000e+00    0.000e+00   0.000e+00 
            -0.000e+00    0.000e+00   0.000e+00 
            -0.000e+00    0.000e+00   0.000e+00 
            -0.000e+00    0.000e+00   0.000e+00 
            -0.000e+00    0.000e+00   0.000e+00 
            -0.000e+00    0.000e+00   0.000e+00 
            -0.000e+00    0.000e+00   0.000e+00 
            -0.000e+00    0.000e+00   0.000e+00 
            -0.000e+00    0.000e+00   0.000e+00 
            -0.000e+00    0.000e+00   0.000e+00 
            -0.000e+00    0.000e+00   0.000e+00 
            -0.000e+00    0.000e+00   0.000e+00 
            -0.000e+00    0.000e+00   0.000e+00 
            -0.000e+00    0.000e+00   0.000e+00 
            -0.000e+00    0.000e+00   0.000e+00 
            -0.000e+00    0.000e+00   0.000e+00 
            -0.000e+00    0.000e+00   0.000e+00 
            -0.000e+00    0.000e+00   0.000e+00 
            -0.000e+00    0.000e+00   0.000e+00 
            -0.000e+00    0.000e+00   0.000e+00 
            -0.000e+00    0.000e+00   0.000e+00 
            -0.000e+00    0.000e+00   0.000e+00 
            -0.000e+00    0.000e+00   0.000e+00 
            -0.000e+00    0.000e+00   0.000e+00 
            -0.000e+00    0.000e+00   0.000e+00 
            -0.000e+00    0.000e+00   0.000e+00 
            -0.000e+00    0.000e+00   0.000e+00 
            -0.000e+00    0.000e+00   0.000e+00 
        </DataArray> 
        <DataArray type="Float32" Name="Forces" NumberOfComponents="3" format="ascii"> 
            -0.000e+00    0.000e+00   0.000e+00 
            -0.000e+00    0.000e+00   0.000e+00 
            -0.000e+00    0.000e+00   0.000e+00 
            -0.000e+00    0.000e+00   0.000e+00 
             0.000e+00    0.000e+00   0.000e+00 
             0.000e+00    0.000e+00   0.000e+00 
             0.000e+00    0.000e+00   0.000e+00 
             0.000e+00    0.000e+00   0.000e+00 
             0.000e+00    0.000e+00   0.000e+00 
             0.000e+00    0.000e+00   0.000e+00 
             0.000e+00    0.000e+00   0.000e+00 
             0.000e+00    0.000e+00   0.000e+00 
             0.000e+00    0.000e+00   0.000e+00 
             0.000e+00    0.000e+00   0.000e+00 
             0.000e+00    0.000e+00   0.000e+00 
             0.000e+00    0.000e+00   0.000e+00 
             0.000e+00    0.000e+00   0.000e+00 
             0.000e+00    0.000e+00   0.000e+00 
             0.000e+00    0.000e+00   0.000e+00 
             0.000e+00    0.000e+00   0.000e+00 
             0.000e+00    0.000e+00   0.000e+00 
             0.000e+00    0.000e+00   0.000e+00 
             0.000e+00    0.000e+00   0.000e+00 
             0.000e+00    0.000e+00   0.000e+00 
             0.000e+00    0.000e+00   0.000e+00 
             0.000e+00    0.000e+00   0.000e+00 
             0.000e+00    0.000e+00   0.000e+00 
             0.000e+00    0.000e+00   0.000e+00 
             0.000e+00   -0.000e+00   0.000e+00 
             0.000e+00   -0.000e+00   0.000e+00 
             0.000e+00   -0.000e+00   0.000e+00 
             0.000e+00   -0.000e+00   0.000e+00 
             0.000e+00   -0.000e+00   0.000e+00 
             0.000e+00   -0.000e+00   0.000e+00 
             0.000e+00   -0.000e+00   0.000e+00 
        </DataArray> 
        <DataArray type="Float32" Name="Stress" NumberOfComponents="3" format="ascii"> 
             0.000e+00   -0.000e+00   -0.000e+00 
             0.000e+00    0.000e+00   -0.000e+00 
             0.000e+00    0.000e+00   -0.000e+00 
             0.000e+00    0.000e+00   -0.000e+00 
             0.000e+00    0.000e+00   -0.000e+00 
             0.000e+00    0.000e+00   -0.000e+00 
             0.000e+00    0.000e+00    0.000e+00 
             0.000e+00    0.000e+00   -0.000e+00 
             0.000e+00    0.000e+00   -0.000e+00 
             0.000e+00    0.000e+00   -0.000e+00 
             0.000e+00    0.000e+00   -0.000e+00 
             0.000e+00    0.000e+00   -0.000e+00 
             0.000e+00    0.000e+00   -0.000e+00 
             0.000e+00    0.000e+00   -0.000e+00 
             0.000e+00    0.000e+00    0.000e+00 
            -0.000e+00    0.000e+00    0.000e+00 
            -0.000e+00    0.000e+00    0.000e+00 
            -0.000e+00    0.000e+00   -0.000e+00 
            -0.000e+00   -0.000e+00    0.000e+00 
            -0.000e+00    0.000e+00    0.000e+00 
            -0.000e+00    0.000e+00    0.000e+00 
             0.000e+00   -0.000e+00    0.000e+00 
            -0.000e+00    0.000e+00    0.000e+00 
            -0.000e+00   -0.000e+00    0.000e+00 
            -0.000e+00   -0.000e+00    0.000e+00 
            -0.000e+00   -0.000e+00    0.000e+00 
            -0.000e+00   -0.000e+00    0.000e+00 
            -0.000e+00   -0.000e+00    0.000e+00 
             0.000e+00    0.000e+00    0.000e+00 
            -0.000e+00    0.000e+00    0.000e+00 
             0.000e+00   -0.000e+00    0.000e+00 
            -0.000e+00   -0.000e+00    0.000e+00 
             0.000e+00   -0.000e+00    0.000e+00 
            -0.000e+00   -0.000e+00    0.000e+00 
            -0.000e+00   -0.000e+00   -0.000e+00 
        </DataArray> 
        <DataArray type="Float32" Name="Principal Stress" NumberOfComponents="3" format="ascii"> 
             0.000e+00  -0.000e+00   0.000e+00 
             0.000e+00   0.000e+00   0.000e+00 
             0.000e+00   0.000e+00   0.000e+00 
             0.000e+00   0.000e+00   0.000e+00 
             0.000e+00   0.000e+00   0.000e+00 
             0.000e+00   0.000e+00   0.000e+00 
             0.000e+00   0.000e+00   0.000e+00 
             0.000e+00   0.000e+00   0.000e+00 
             0.000e+00   0.000e+00   0.000e+00 
             0.000e+00   0.000e+00   0.000e+00 
             0.000e+00  -0.000e+00   0.000e+00 
             0.000e+00   0.000e+00   0.000e+00 
             0.000e+00   0.000e+00   0.000e+00 
             0.000e+00   0.000e+00   0.000e+00 
             0.000e+00  -0.000e+00   0.000e+00 
             0.000e+00  -0.000e+00   0.000e+00 
             0.000e+00  -0.000e+00   0.000e+00 
             0.000e+00  -0.000e+00   0.000e+00 
            -0.000e+00  -0.000e+00   0.000e+00 
             0.000e+00  -0.000e+00   0.000e+00 
             0.000e+00  -0.000e+00   0.000e+00 
             0.000e+00  -0.000e+00   0.000e+00 
             0.000e+00  -0.000e+00   0.000e+00 
             0.000e+00  -0.000e+00   0.000e+00 
             0.000e+00  -0.000e+00   0.000e+00 
             0.000e+00  -0.000e+00   0.000e+00 
             0.000e+00  -0.000e+00   0.000e+00 
             0.000e+00  -0.000e+00   0.000e+00 
             0.000e+00  -0.000e+00   0.000e+00 
             0.000e+00  -0.000e+00   0.000e+00 
             0.000e+00  -0.000e+00   0.000e+00 
             0.000e+00  -0.000e+00   0.000e+00 
             0.000e+00  -0.000e+00   0.000e+00 
             0.000e+00  -0.000e+00   0.000e+00 
            -0.000e+00  -0.000e+00   0.000e+00 
        </DataArray> 
      </PointData> 
      <Points> 
        <DataArray type="Float32" Name="Points" NumberOfComponents="3" format="ascii"> 
             0.000e+00    6.000e+00   0.000e+00 
             0.000e+00    4.500e+00   0.000e+00 
             0.000e+00    3.400e+00   0.000e+00 
             0.000e+00    2.500e+00   0.000e+00 
             0.000e+00    1.800e+00   0.000e+00 
             0.000e+00    1.350e+00   0.000e+00 
             0.000e+00    1.000e+00   0.000e+00 
             2.500e+00    6.000e+00   0.000e+00 
             1.865e+00    4.477e+00   0.000e+00 
             1.399e+00    3.360e+00   0.000e+00 
             1.018e+00    2.447e+00   0.000e+00 
             7.215e-01    1.736e+00   0.000e+00 
             5.309e-01    1.279e+00   0.000e+00 
             3.827e-01    9.239e-01   0.000e+00 
             5.000e+00    6.000e+00   0.000e+00 
             3.712e+00    4.412e+00   0.000e+00 
             2.768e+00    3.248e+00   0.000e+00 
             1.995e+00    2.295e+00   0.000e+00 
             1.394e+00    1.554e+00   0.000e+00 
             1.008e+00    1.078e+00   0.000e+00 
             7.071e-01    7.071e-01   0.000e+00 
             5.000e+00    2.000e+00   0.000e+00 
             3.777e+00    1.515e+00   0.000e+00 
             2.880e+00    1.159e+00   0.000e+00 
             2.147e+00    8.679e-01   0.000e+00 
             1.576e+00    6.415e-01   0.000e+00 
             1.209e+00    4.959e-01   0.000e+00 
             9.239e-01    3.827e-01   0.000e+00 
             5.000e+00    0.000e+00   0.000e+00 
             3.800e+00    0.000e+00   0.000e+00 
             2.920e+00    0.000e+00   0.000e+00 
             2.200e+00    0.000e+00   0.000e+00 
             1.640e+00    0.000e+00   0.000e+00 
             1.280e+00    0.000e+00   0.000e+00 
             1.000e+00    0.000e+00   0.000e+00 
        </DataArray> 
      </Points> 
      <Cells> 
        <DataArray type="Int64" Name="connectivity" format="ascii"> 
                0     1     8     7     1     2
     9     8     2     3    10     9
     3     4    11    10     4     5
    12    11     5     6    13    12
     7     8    15    14     8     9
    16    15     9    10    17    16
    10    11    18    17    11    12
    19    18    12    13    20    19
    14    15    22    21    15    16
    23    22    16    17    24    23
    17    18    25    24    18    19
    26    25    19    20    27    26
    21    22    29    28    22    23
    30    29    23    24    31    30
    24    25    32    31    25    26
    33    32    26    27    34    33
                   </DataArray> 
        <DataArray type="Int64" Name="offsets" format="ascii"> 
                          4               8              12              16              20              24
                         28              32              36              40              44              48
                         52              56              60              64              68              72
                         76              80              84              88              92              96
        </DataArray> 
        <DataArray type="UInt8" Name="types" format="ascii"> 
             9  9  9  9  9  9
             9  9  9  9  9  9
             9  9  9  9  9  9
             9  9  9  9  9  9
        </DataArray> 
      </Cells> 
    </Piece> 
  </UnstructuredGrid> 
</VTKFile> 
