<VTKFile type="UnstructuredGrid" version="1.0" byte_order="LittleEndian" header_type="UInt64"> 
  <UnstructuredGrid> 
    <FieldData> 
      <DataArray type="Float64" Name="TimeValue" NumberOfTuples="1" format="ascii"> 
        0 
      </DataArray> 
    </FieldData> 
 <Piece NumberOfPoints="  10" NumberOfCells="  25"> 
      <PointData Vectors="Nodal Vectors"> 
        <DataArray type="Float32" Name="Displacement" NumberOfComponents="3" format="ascii" > 
             0.000e+00    0.000e+00   -0.000e+00 
             0.000e+00    0.000e+00   -0.000e+00 
             0.000e+00   -0.000e+00   -0.000e+00 
            -0.000e+00   -0.000e+00   -0.000e+00 
             0.000e+00   -0.000e+00    0.000e+00 
             0.000e+00   -0.000e+00    0.000e+00 
             0.000e+00    0.000e+00    0.000e+00 
             0.000e+00    0.000e+00    0.000e+00 
             0.000e+00    0.000e+00    0.000e+00 
             0.000e+00    0.000e+00    0.000e+00 
        </DataArray> 
        <DataArray type="Float32" Name="Forces" NumberOfComponents="3" format="ascii"> 
             0.000e+00    0.000e+00   -0.000e+00 
             0.000e+00    0.000e+00   -0.000e+00 
             0.000e+00    0.000e+00    0.000e+00 
             0.000e+00    0.000e+00    0.000e+00 
             0.000e+00    0.000e+00    0.000e+00 
             0.000e+00    0.000e+00    0.000e+00 
             0.000e+00   -0.000e+00    0.000e+00 
            -0.000e+00   -0.000e+00    0.000e+00 
             0.000e+00   -0.000e+00   -0.000e+00 
            -0.000e+00   -0.000e+00   -0.000e+00 
        </DataArray> 
      </PointData> 
      <CellData Vectors="Element Vectors"> 
        <DataArray type="Float32" Name="Member Force" NumberOfComponents="3" format="ascii"> 
             0.000e+00   0.000e+0    0.000e+00 
            -0.000e+00   0.000e+0    0.000e+00 
            -0.000e+00   0.000e+0    0.000e+00 
             0.000e+00   0.000e+0    0.000e+00 
             0.000e+00   0.000e+0    0.000e+00 
            -0.000e+00   0.000e+0    0.000e+00 
             0.000e+00   0.000e+0    0.000e+00 
            -0.000e+00   0.000e+0    0.000e+00 
             0.000e+00   0.000e+0    0.000e+00 
            -0.000e+00   0.000e+0    0.000e+00 
            -0.000e+00   0.000e+0    0.000e+00 
            -0.000e+00   0.000e+0    0.000e+00 
            -0.000e+00   0.000e+0    0.000e+00 
            -0.000e+00   0.000e+0    0.000e+00 
             0.000e+00   0.000e+0    0.000e+00 
            -0.000e+00   0.000e+0    0.000e+00 
             0.000e+00   0.000e+0    0.000e+00 
            -0.000e+00   0.000e+0    0.000e+00 
            -0.000e+00   0.000e+0    0.000e+00 
             0.000e+00   0.000e+0    0.000e+00 
             0.000e+00   0.000e+0    0.000e+00 
             0.000e+00   0.000e+0    0.000e+00 
            -0.000e+00   0.000e+0    0.000e+00 
             0.000e+00   0.000e+0    0.000e+00 
            -0.000e+00   0.000e+0    0.000e+00 
        </DataArray> 
        <DataArray type="Float32" Name="Member Stress" NumberOfComponents="3" format="ascii"> 
              0.000e+00   0.000e+00   0.000e+00 
             -0.000e+00   0.000e+00   0.000e+00 
             -0.000e+00   0.000e+00   0.000e+00 
              0.000e+00   0.000e+00   0.000e+00 
              0.000e+00   0.000e+00   0.000e+00 
             -0.000e+00   0.000e+00   0.000e+00 
              0.000e+00   0.000e+00   0.000e+00 
             -0.000e+00   0.000e+00   0.000e+00 
              0.000e+00   0.000e+00   0.000e+00 
             -0.000e+00   0.000e+00   0.000e+00 
             -0.000e+00   0.000e+00   0.000e+00 
             -0.000e+00   0.000e+00   0.000e+00 
             -0.000e+00   0.000e+00   0.000e+00 
             -0.000e+00   0.000e+00   0.000e+00 
              0.000e+00   0.000e+00   0.000e+00 
             -0.000e+00   0.000e+00   0.000e+00 
              0.000e+00   0.000e+00   0.000e+00 
             -0.000e+00   0.000e+00   0.000e+00 
             -0.000e+00   0.000e+00   0.000e+00 
              0.000e+00   0.000e+00   0.000e+00 
              0.000e+00   0.000e+00   0.000e+00 
              0.000e+00   0.000e+00   0.000e+00 
             -0.000e+00   0.000e+00   0.000e+00 
              0.000e+00   0.000e+00   0.000e+00 
             -0.000e+00   0.000e+00   0.000e+00 
        </DataArray> 
      </CellData> 
      <Points> 
        <DataArray type="Float32" Name="Points" NumberOfComponents="3" format="ascii"> 
            -3.750e+01    0.000e+00    2.000e+02 
             3.750e+01    0.000e+00    2.000e+02 
            -3.750e+01    3.750e+01    1.000e+02 
             3.750e+01    3.750e+01    1.000e+02 
             3.750e+01   -3.750e+01    1.000e+02 
            -3.750e+01   -3.750e+01    1.000e+02 
            -1.000e+02    1.000e+02    0.000e+00 
             1.000e+02    1.000e+02    0.000e+00 
             1.000e+02   -1.000e+02    0.000e+00 
            -1.000e+02   -1.000e+02    0.000e+00 
        </DataArray> 
      </Points> 
      <Cells> 
        <DataArray type="Int64" Name="connectivity" format="ascii"> 
                0     1     0     3     1     2
     0     4     1     5     1     3
     1     4     0     2     0     5
     2     5     3     4     2     3
     4     5     2     9     5     6
     3     8     4     7     3     6
     2     7     4     9     5     8
     5     9     2     6     4     8
     3     7
                   </DataArray> 
        <DataArray type="Int64" Name="offsets" format="ascii"> 
                          2               4               6               8              10              12
                         14              16              18              20              22              24
                         26              28              30              32              34              36
                         38              40              42              44              46              48
                         50
        </DataArray> 
        <DataArray type="UInt8" Name="types" format="ascii"> 
             3  3  3  3  3  3
             3  3  3  3  3  3
             3  3  3  3  3  3
             3  3  3  3  3  3
             3
        </DataArray> 
      </Cells> 
    </Piece> 
  </UnstructuredGrid> 
</VTKFile> 
