<VTKFile type="UnstructuredGrid" version="1.0" byte_order="LittleEndian" header_type="UInt64"> 
  <UnstructuredGrid> 
    <FieldData> 
      <DataArray type="Float64" Name="TimeValue" NumberOfTuples="1" format="ascii"> 
        0 
      </DataArray> 
    </FieldData> 
 <Piece NumberOfPoints="  10" NumberOfCells="  25"> 
      <PointData Vectors="Nodal Vectors"> 
        <DataArray type="Float32" Name="Displacement" NumberOfComponents="3" format="ascii" > 
             0.000e+00    0.000e+00   -0.000e+00 
             0.000e+00    0.000e+00   -0.000e+00 
             0.000e+00   -0.000e+00   -0.000e+00 
            -0.000e+00   -0.000e+00   -0.000e+00 
             0.000e+00   -0.000e+00    0.000e+00 
             0.000e+00   -0.000e+00    0.000e+00 
             0.000e+00    0.000e+00    0.000e+00 
             0.000e+00    0.000e+00    0.000e+00 
             0.000e+00    0.000e+00    0.000e+00 
             0.000e+00    0.000e+00    0.000e+00 
        </DataArray> 
        <DataArray type="Float32" Name="Forces" NumberOfComponents="3" format="ascii"> 
             0.000e+00    0.000e+00   -0.000e+00 
             0.000e+00    0.000e+00   -0.000e+00 
             0.000e+00    0.000e+00    0.000e+00 
             0.000e+00    0.000e+00    0.000e+00 
             0.000e+00    0.000e+00    0.000e+00 
             0.000e+00    0.000e+00    0.000e+00 
             0.000e+00   -0.000e+00    0.000e+00 
            -0.000e+00   -0.000e+00    0.000e+00 
             0.000e+00   -0.000e+00   -0.000e+00 
            -0.000e+00   -0.000e+00   -0.000e+00 
        </DataArray> 
      </PointData> 
      <CellData Vectors="Element Vectors"> 
        <DataArray type="Float32" Name="Member Force" NumberOfComponents="3" format="ascii"> 
