<VTKFile type="UnstructuredGrid" version="1.0" byte_order="LittleEndian" header_type="UInt64"> 
  <UnstructuredGrid> 
    <FieldData> 
      <DataArray type="Float64" Name="TimeValue" NumberOfTuples="1" format="ascii"> 
        1 
      </DataArray> 
    </FieldData> 
 <Piece NumberOfPoints="  10" NumberOfCells="  25"> 
      <PointData Vectors="Nodal Vectors"> 
        <DataArray type="Float32" Name="Displacement" NumberOfComponents="3" format="ascii" > 
             8.515e-03    3.500e-01   -2.213e-02 
             3.192e-02    3.500e-01   -3.224e-02 
             1.153e-02   -9.770e-03   -1.085e-01 
            -4.039e-03   -8.781e-03   -1.154e-01 
             4.477e-04   -5.089e-03    7.051e-02 
             7.042e-03   -4.100e-03    7.737e-02 
             0.000e+00    0.000e+00    0.000e+00 
             0.000e+00    0.000e+00    0.000e+00 
             0.000e+00    0.000e+00    0.000e+00 
             0.000e+00    0.000e+00    0.000e+00 
        </DataArray> 
        <DataArray type="Float32" Name="Forces" NumberOfComponents="3" format="ascii"> 
             1.000e+03    1.000e+04   -5.000e+03 
             0.000e+00    1.000e+04   -5.000e+03 
             5.000e+02    0.000e+00    0.000e+00 
             0.000e+00    0.000e+00    0.000e+00 
             0.000e+00    0.000e+00    0.000e+00 
             5.000e+02    0.000e+00    0.000e+00 
             9.908e+03   -6.263e+03    1.175e+04 
            -1.091e+04   -7.326e+03    1.325e+04 
             5.665e+03   -2.674e+03   -6.750e+03 
            -6.665e+03   -3.737e+03   -8.250e+03 
        </DataArray> 
      </PointData> 
      <CellData Vectors="Element Vectors"> 
        <DataArray type="Float32" Name="Member Force" NumberOfComponents="3" format="ascii"> 
             7.722e+03   0.000e+0    0.000e+00 
            -7.825e+05   0.000e+0    0.000e+00 
            -6.689e+05   0.000e+0    0.000e+00 
             5.320e+05   0.000e+0    0.000e+00 
             6.455e+05   0.000e+0    0.000e+00 
            -1.358e+06   0.000e+0    0.000e+00 
             8.033e+05   0.000e+0    0.000e+00 
            -1.282e+06   0.000e+0    0.000e+00 
             8.794e+05   0.000e+0    0.000e+00 
            -5.670e+02   0.000e+0    0.000e+00 
            -3.692e+02   0.000e+0    0.000e+00 
            -2.180e+03   0.000e+0    0.000e+00 
            -9.233e+02   0.000e+0    0.000e+00 
            -6.208e+05   0.000e+0    0.000e+00 
             4.729e+05   0.000e+0    0.000e+00 
            -6.760e+05   0.000e+0    0.000e+00 
             4.178e+05   0.000e+0    0.000e+00 
            -1.122e+06   0.000e+0    0.000e+00 
            -1.149e+06   0.000e+0    0.000e+00 
             6.601e+05   0.000e+0    0.000e+00 
             6.328e+05   0.000e+0    0.000e+00 
             1.448e+06   0.000e+0    0.000e+00 
            -1.741e+06   0.000e+0    0.000e+00 
             1.226e+06   0.000e+0    0.000e+00 
            -1.963e+06   0.000e+0    0.000e+00 
        </DataArray> 
        <DataArray type="Float32" Name="Member Stress" NumberOfComponents="3" format="ascii"> 
              2.340e+05   0.000e+00   0.000e+00 
             -3.883e+05   0.000e+00   0.000e+00 
             -3.320e+05   0.000e+00   0.000e+00 
              2.640e+05   0.000e+00   0.000e+00 
              3.204e+05   0.000e+00   0.000e+00 
             -4.810e+05   0.000e+00   0.000e+00 
              2.846e+05   0.000e+00   0.000e+00 
             -4.541e+05   0.000e+00   0.000e+00 
              3.115e+05   0.000e+00   0.000e+00 
             -5.670e+04   0.000e+00   0.000e+00 
             -3.692e+04   0.000e+00   0.000e+00 
             -1.557e+05   0.000e+00   0.000e+00 
             -6.595e+04   0.000e+00   0.000e+00 
             -6.335e+05   0.000e+00   0.000e+00 
              4.826e+05   0.000e+00   0.000e+00 
             -6.897e+05   0.000e+00   0.000e+00 
              4.263e+05   0.000e+00   0.000e+00 
             -6.374e+05   0.000e+00   0.000e+00 
             -6.529e+05   0.000e+00   0.000e+00 
              3.751e+05   0.000e+00   0.000e+00 
              3.595e+05   0.000e+00   0.000e+00 
              5.935e+05   0.000e+00   0.000e+00 
             -7.134e+05   0.000e+00   0.000e+00 
              5.024e+05   0.000e+00   0.000e+00 
             -8.046e+05   0.000e+00   0.000e+00 
        </DataArray> 
      </CellData> 
      <Points> 
        <DataArray type="Float32" Name="Points" NumberOfComponents="3" format="ascii"> 
            -3.750e+01    0.000e+00    2.000e+02 
             3.750e+01    0.000e+00    2.000e+02 
            -3.750e+01    3.750e+01    1.000e+02 
             3.750e+01    3.750e+01    1.000e+02 
             3.750e+01   -3.750e+01    1.000e+02 
            -3.750e+01   -3.750e+01    1.000e+02 
            -1.000e+02    1.000e+02    0.000e+00 
             1.000e+02    1.000e+02    0.000e+00 
             1.000e+02   -1.000e+02    0.000e+00 
            -1.000e+02   -1.000e+02    0.000e+00 
        </DataArray> 
      </Points> 
      <Cells> 
        <DataArray type="Int64" Name="connectivity" format="ascii"> 
                0     1     0     3     1     2
     0     4     1     5     1     3
     1     4     0     2     0     5
     2     5     3     4     2     3
     4     5     2     9     5     6
     3     8     4     7     3     6
     2     7     4     9     5     8
     5     9     2     6     4     8
     3     7
                   </DataArray> 
        <DataArray type="Int64" Name="offsets" format="ascii"> 
                          2               4               6               8              10              12
                         14              16              18              20              22              24
                         26              28              30              32              34              36
                         38              40              42              44              46              48
                         50
        </DataArray> 
        <DataArray type="UInt8" Name="types" format="ascii"> 
             3  3  3  3  3  3
             3  3  3  3  3  3
             3  3  3  3  3  3
             3  3  3  3  3  3
             3
        </DataArray> 
      </Cells> 
    </Piece> 
  </UnstructuredGrid> 
</VTKFile> 
