<VTKFile type="UnstructuredGrid" version="1.0" byte_order="LittleEndian" header_type="UInt64"> 
  <UnstructuredGrid> 
    <FieldData> 
      <DataArray type="Float64" Name="TimeValue" NumberOfTuples="1" format="ascii"> 
        0 
      </DataArray> 
    </FieldData> 
 <Piece NumberOfPoints="  10" NumberOfCells="   4"> 
      <PointData Vectors="Nodal Vectors"> 
        <DataArray type="Float32" Name="Displacement" NumberOfComponents="3" format="ascii" > 
             0.000e+00    0.000e+00   0.000e+00 
             0.000e+00    0.000e+00   0.000e+00 
            -0.000e+00    0.000e+00   0.000e+00 
             0.000e+00    0.000e+00   0.000e+00 
            -0.000e+00    0.000e+00   0.000e+00 
             0.000e+00    0.000e+00   0.000e+00 
            -0.000e+00    0.000e+00   0.000e+00 
             0.000e+00    0.000e+00   0.000e+00 
            -0.000e+00    0.000e+00   0.000e+00 
             0.000e+00    0.000e+00   0.000e+00 
        </DataArray> 
        <DataArray type="Float32" Name="Forces" NumberOfComponents="3" format="ascii"> 
             0.000e+00   -0.000e+00   0.000e+00 
            -0.000e+00   -0.000e+00   0.000e+00 
             0.000e+00    0.000e+00   0.000e+00 
             0.000e+00    0.000e+00   0.000e+00 
             0.000e+00    0.000e+00   0.000e+00 
             0.000e+00    0.000e+00   0.000e+00 
             0.000e+00    0.000e+00   0.000e+00 
             0.000e+00    0.000e+00   0.000e+00 
             0.000e+00    0.000e+00   0.000e+00 
             0.000e+00    0.000e+00   0.000e+00 
        </DataArray> 
        <DataArray type="Float32" Name="Stress" NumberOfComponents="3" format="ascii"> 
            -0.000e+00    0.000e+00    0.000e+00 
             0.000e+00    0.000e+00    0.000e+00 
            -0.000e+00   -0.000e+00    0.000e+00 
             0.000e+00   -0.000e+00    0.000e+00 
            -0.000e+00    0.000e+00    0.000e+00 
             0.000e+00    0.000e+00    0.000e+00 
            -0.000e+00    0.000e+00   -0.000e+00 
             0.000e+00    0.000e+00   -0.000e+00 
            -0.000e+00    0.000e+00    0.000e+00 
             0.000e+00    0.000e+00    0.000e+00 
        </DataArray> 
        <DataArray type="Float32" Name="Principal Stress" NumberOfComponents="3" format="ascii"> 
             0.000e+00  -0.000e+00   0.000e+00 
             0.000e+00  -0.000e+00   0.000e+00 
            -0.000e+00  -0.000e+00   0.000e+00 
             0.000e+00  -0.000e+00   0.000e+00 
             0.000e+00  -0.000e+00   0.000e+00 
             0.000e+00   0.000e+00   0.000e+00 
             0.000e+00  -0.000e+00   0.000e+00 
             0.000e+00   0.000e+00   0.000e+00 
             0.000e+00  -0.000e+00   0.000e+00 
             0.000e+00   0.000e+00   0.000e+00 
        </DataArray> 
      </PointData> 
      <Points> 
        <DataArray type="Float32" Name="Points" NumberOfComponents="3" format="ascii"> 
             0.000e+00    6.000e+00   0.000e+00 
             0.000e+00   -6.000e+00   0.000e+00 
             1.200e+01    6.000e+00   0.000e+00 
             1.200e+01   -6.000e+00   0.000e+00 
             2.400e+01    6.000e+00   0.000e+00 
             2.400e+01   -6.000e+00   0.000e+00 
             3.600e+01    6.000e+00   0.000e+00 
             3.600e+01   -6.000e+00   0.000e+00 
             4.800e+01    6.000e+00   0.000e+00 
             4.800e+01   -6.000e+00   0.000e+00 
        </DataArray> 
      </Points> 
      <Cells> 
        <DataArray type="Int64" Name="connectivity" format="ascii"> 
                0     1     3     2     2     3
     5     4     4     5     7     6
     6     7     9     8        </DataArray> 
        <DataArray type="Int64" Name="offsets" format="ascii"> 
               4    8   12   16
        </DataArray> 
        <DataArray type="UInt8" Name="types" format="ascii"> 
             9  9  9  9
        </DataArray> 
      </Cells> 
    </Piece> 
  </UnstructuredGrid> 
</VTKFile> 
