<VTKFile type="UnstructuredGrid" version="1.0" byte_order="LittleEndian" header_type="UInt64"> 
  <UnstructuredGrid> 
    <FieldData> 
      <DataArray type="Float64" Name="TimeValue" NumberOfTuples="1" format="ascii"> 
        1 
      </DataArray> 
    </FieldData> 
 <Piece NumberOfPoints="  10" NumberOfCells="   4"> 
      <PointData Vectors="Nodal Vectors"> 
        <DataArray type="Float32" Name="Displacement" NumberOfComponents="3" format="ascii" > 
             0.000e+00    0.000e+00   0.000e+00 
             0.000e+00    0.000e+00   0.000e+00 
            -1.248e+00    1.536e+00   0.000e+00 
             1.440e+00    1.536e+00   0.000e+00 
            -2.112e+00    5.376e+00   0.000e+00 
             2.496e+00    5.376e+00   0.000e+00 
            -2.592e+00    1.075e+01   0.000e+00 
             3.168e+00    1.075e+01   0.000e+00 
            -2.688e+00    1.690e+01   0.000e+00 
             3.456e+00    1.690e+01   0.000e+00 
        </DataArray> 
        <DataArray type="Float32" Name="Forces" NumberOfComponents="3" format="ascii"> 
             1.008e+04   -1.440e+03   0.000e+00 
            -1.296e+04   -1.440e+03   0.000e+00 
             0.000e+00    0.000e+00   0.000e+00 
             0.000e+00    0.000e+00   0.000e+00 
             0.000e+00    0.000e+00   0.000e+00 
             0.000e+00    0.000e+00   0.000e+00 
             0.000e+00    0.000e+00   0.000e+00 
             0.000e+00    0.000e+00   0.000e+00 
             1.440e+03    1.440e+03   0.000e+00 
             1.440e+03    1.440e+03   0.000e+00 
        </DataArray> 
        <DataArray type="Float32" Name="Stress" NumberOfComponents="3" format="ascii"> 
            -3.120e+03    0.000e+00    1.920e+03 
             3.600e+03    0.000e+00    1.920e+03 
            -2.640e+03   -8.327e-13    0.000e+00 
             3.120e+03   -8.327e-13    2.274e-13 
            -1.680e+03    0.000e+00    2.046e-12 
             2.160e+03    0.000e+00    2.046e-12 
            -7.200e+02    0.000e+00   -3.979e-13 
             1.200e+03    0.000e+00   -3.979e-13 
            -2.400e+02    0.000e+00    0.000e+00 
             7.200e+02    0.000e+00    0.000e+00 
        </DataArray> 
        <DataArray type="Float32" Name="Principal Stress" NumberOfComponents="3" format="ascii"> 
             9.139e+02  -4.034e+03   4.560e+03 
             4.432e+03  -8.318e+02   4.901e+03 
            -9.095e-13  -2.640e+03   2.640e+03 
             3.120e+03  -9.095e-13   3.120e+03 
             0.000e+00  -1.680e+03   1.680e+03 
             2.160e+03   0.000e+00   2.160e+03 
             0.000e+00  -7.200e+02   7.200e+02 
             1.200e+03   0.000e+00   1.200e+03 
             0.000e+00  -2.400e+02   2.400e+02 
             7.200e+02   0.000e+00   7.200e+02 
        </DataArray> 
      </PointData> 
      <Points> 
        <DataArray type="Float32" Name="Points" NumberOfComponents="3" format="ascii"> 
             0.000e+00    6.000e+00   0.000e+00 
             0.000e+00   -6.000e+00   0.000e+00 
             1.200e+01    6.000e+00   0.000e+00 
             1.200e+01   -6.000e+00   0.000e+00 
             2.400e+01    6.000e+00   0.000e+00 
             2.400e+01   -6.000e+00   0.000e+00 
             3.600e+01    6.000e+00   0.000e+00 
             3.600e+01   -6.000e+00   0.000e+00 
             4.800e+01    6.000e+00   0.000e+00 
             4.800e+01   -6.000e+00   0.000e+00 
        </DataArray> 
      </Points> 
      <Cells> 
        <DataArray type="Int64" Name="connectivity" format="ascii"> 
                0     1     3     2     2     3
     5     4     4     5     7     6
     6     7     9     8        </DataArray> 
        <DataArray type="Int64" Name="offsets" format="ascii"> 
               4    8   12   16
        </DataArray> 
        <DataArray type="UInt8" Name="types" format="ascii"> 
             9  9  9  9
        </DataArray> 
      </Cells> 
    </Piece> 
  </UnstructuredGrid> 
</VTKFile> 
