<VTKFile type="UnstructuredGrid" version="1.0" byte_order="LittleEndian" header_type="UInt64"> 
  <UnstructuredGrid> 
    <FieldData> 
      <DataArray type="Float64" Name="TimeValue" NumberOfTuples="1" format="ascii"> 
        1 
      </DataArray> 
    </FieldData> 
 <Piece NumberOfPoints="  10" NumberOfCells="   4"> 
      <PointData Vectors="Nodal Vectors"> 
        <DataArray type="Float32" Name="Displacement" NumberOfComponents="3" format="ascii" > 
             0.000e+00    0.000e+00   0.000e+00 
             0.000e+00    0.000e+00   0.000e+00 
            -1.248e+00    1.536e+00   0.000e+00 
             1.440e+00    1.536e+00   0.000e+00 
            -2.112e+00    5.376e+00   0.000e+00 
             2.496e+00    5.376e+00   0.000e+00 
            -2.592e+00    1.075e+01   0.000e+00 
             3.168e+00    1.075e+01   0.000e+00 
            -2.688e+00    1.690e+01   0.000e+00 
             3.456e+00    1.690e+01   0.000e+00 
        </DataArray> 
        <DataArray type="Float32" Name="Forces" NumberOfComponents="3" format="ascii"> 
             1.008e+04   -1.440e+03   0.000e+00 
            -1.296e+04   -1.440e+03   0.000e+00 
             0.000e+00    0.000e+00   0.000e+00 
             0.000e+00    0.000e+00   0.000e+00 
             0.000e+00    0.000e+00   0.000e+00 
             0.000e+00    0.000e+00   0.000e+00 
             0.000e+00    0.000e+00   0.000e+00 
             0.000e+00    0.000e+00   0.000e+00 
             1.440e+03    1.440e+03   0.000e+00 
             1.440e+03    1.440e+03   0.000e+00 
        </DataArray> 
        <DataArray type="Float32" Name="Stress" NumberOfComponents="3" format="ascii"> 
             6.720e+03    0.000e+00   -2.880e+04 
            -8.640e+03    0.000e+00   -2.880e+04 
             1.800e+03    0.000e+00   -9.600e+03 
            -2.520e+03    0.000e+00   -9.600e+03 
            -2.640e+03   -1.665e-12    5.684e-13 
             3.120e+03   -1.665e-12   -2.274e-13 
            -1.680e+03    3.331e-12    0.000e+00 
             2.160e+03    3.331e-12   -8.527e-13 
            -1.200e+03    0.000e+00   -4.800e+02 
             1.680e+03    0.000e+00   -4.800e+02 
        </DataArray> 
        <DataArray type="Float32" Name="Principal Stress" NumberOfComponents="3" format="ascii"> 
             3.236e+04  -2.564e+04   5.033e+04 
             2.480e+04  -3.344e+04   5.063e+04 
             1.054e+04  -8.742e+03   1.672e+04 
             8.422e+03  -1.094e+04   1.682e+04 
            -1.819e-12  -2.640e+03   2.640e+03 
             3.120e+03  -1.819e-12   3.120e+03 
             3.411e-12  -1.680e+03   1.680e+03 
             2.160e+03   3.183e-12   2.160e+03 
             1.684e+02  -1.368e+03   1.460e+03 
             1.807e+03  -1.275e+02   1.874e+03 
        </DataArray> 
      </PointData> 
      <Points> 
        <DataArray type="Float32" Name="Points" NumberOfComponents="3" format="ascii"> 
             0.000e+00    6.000e+00   0.000e+00 
             0.000e+00   -6.000e+00   0.000e+00 
             1.200e+01    6.000e+00   0.000e+00 
             1.200e+01   -6.000e+00   0.000e+00 
             2.400e+01    6.000e+00   0.000e+00 
             2.400e+01   -6.000e+00   0.000e+00 
             3.600e+01    6.000e+00   0.000e+00 
             3.600e+01   -6.000e+00   0.000e+00 
             4.800e+01    6.000e+00   0.000e+00 
             4.800e+01   -6.000e+00   0.000e+00 
        </DataArray> 
      </Points> 
      <Cells> 
        <DataArray type="Int64" Name="connectivity" format="ascii"> 
                0     1     3     2     2     3
     5     4     4     5     7     6
     6     7     9     8
                   </DataArray> 
        <DataArray type="Int64" Name="offsets" format="ascii"> 
                          4               8              12              16
        </DataArray> 
        <DataArray type="UInt8" Name="types" format="ascii"> 
             9  9  9  9
        </DataArray> 
      </Cells> 
    </Piece> 
  </UnstructuredGrid> 
</VTKFile> 
