<VTKFile type="UnstructuredGrid" version="1.0" byte_order="LittleEndian" header_type="UInt64"> 
  <UnstructuredGrid> 
    <FieldData> 
      <DataArray type="Float64" Name="TimeValue" NumberOfTuples="1" format="ascii"> 
        1 
      </DataArray> 
    </FieldData> 
 <Piece NumberOfPoints="   3" NumberOfCells="   2"> 
      <PointData Vectors="Nodal Vectors"> 
        <DataArray type="Float32" Name="Displacement" NumberOfComponents="3" format="ascii" > 
             0.000e+00    0.000e+00   0.000e+00 
            -1.755e-04    1.925e-13   0.000e+00 
             0.000e+00    0.000e+00   0.000e+00 
        </DataArray> 
        <DataArray type="Float32" Name="Forces" NumberOfComponents="3" format="ascii"> 
            -2.339e+01   -1.283e+02   0.000e+00 
             0.000e+00    0.000e+00   0.000e+00 
             2.339e+01   -9.670e+01   0.000e+00 
        </DataArray> 
      </PointData> 
      <Points> 
        <DataArray type="Float32" Name="Points" NumberOfComponents="3" format="ascii"> 
             0.000e+00    0.000e+00   0.000e+00 
             0.000e+00    3.000e+00   0.000e+00 
             3.000e+00    3.000e+00   0.000e+00 
        </DataArray> 
      </Points> 
      <Cells> 
        <DataArray type="Int64" Name="connectivity" format="ascii"> 
                0     1     1     2
                   </DataArray> 
        <DataArray type="Int64" Name="offsets" format="ascii"> 
                          2               4
        </DataArray> 
        <DataArray type="UInt8" Name="types" format="ascii"> 
             3  3
        </DataArray> 
      </Cells> 
    </Piece> 
  </UnstructuredGrid> 
</VTKFile> 
