<VTKFile type="UnstructuredGrid" version="1.0" byte_order="LittleEndian" header_type="UInt64"> 
  <UnstructuredGrid> 
    <FieldData> 
      <DataArray type="Float64" Name="TimeValue" NumberOfTuples="1" format="ascii"> 
        1 
      </DataArray> 
    </FieldData> 
 <Piece NumberOfPoints="   5" NumberOfCells="   4"> 
      <PointData Vectors="Nodal Vectors"> 
        <DataArray type="Float32" Name="Displacement" NumberOfComponents="3" format="ascii" > 
             0.000e+00    0.000e+00   0.000e+00 
            -2.199e-03    8.098e-04   0.000e+00 
             7.827e-04   -3.788e-04   0.000e+00 
             0.000e+00   -1.000e-02   0.000e+00 
             0.000e+00    0.000e+00   0.000e+00 
        </DataArray> 
        <DataArray type="Float32" Name="Forces" NumberOfComponents="3" format="ascii"> 
             3.211e+01   -1.944e+01   0.000e+00 
             1.000e+01    2.000e+01   0.000e+00 
             0.000e+00    0.000e+00   0.000e+00 
             1.679e+01   -9.655e+00   0.000e+00 
             1.102e+00    9.091e+00   0.000e+00 
        </DataArray> 
      </PointData> 
      <Points> 
        <DataArray type="Float32" Name="Points" NumberOfComponents="3" format="ascii"> 
             0.000e+00    0.000e+00   0.000e+00 
             0.000e+00    5.000e+00   0.000e+00 
             1.000e+01    5.000e+00   0.000e+00 
             2.000e+01    0.000e+00   0.000e+00 
             1.000e+01    0.000e+00   0.000e+00 
        </DataArray> 
      </Points> 
      <Cells> 
        <DataArray type="Int64" Name="connectivity" format="ascii"> 
                0     1     1     2     4     2
     2     3
                   </DataArray> 
        <DataArray type="Int64" Name="offsets" format="ascii"> 
                          2               4               6               8
        </DataArray> 
        <DataArray type="UInt8" Name="types" format="ascii"> 
             3  3  3  3
        </DataArray> 
      </Cells> 
    </Piece> 
  </UnstructuredGrid> 
</VTKFile> 
