<VTKFile type="UnstructuredGrid" version="1.0" byte_order="LittleEndian" header_type="UInt64"> 
  <UnstructuredGrid> 
    <FieldData> 
      <DataArray type="Float64" Name="TimeValue" NumberOfTuples="1" format="ascii"> 
        1 
      </DataArray> 
    </FieldData> 
 <Piece NumberOfPoints="   4" NumberOfCells="   3"> 
      <PointData Vectors="Nodal Vectors"> 
        <DataArray type="Float32" Name="Displacement" NumberOfComponents="3" format="ascii" > 
             1.080e-03    3.941e-04    1.936e-04 
             0.000e+00    0.000e+00    0.000e+00 
             0.000e+00    0.000e+00    0.000e+00 
             0.000e+00    0.000e+00    0.000e+00 
        </DataArray> 
        <DataArray type="Float32" Name="Forces" NumberOfComponents="3" format="ascii"> 
             1.000e+02    5.000e+01    3.000e+01 
            -8.775e-03   -7.226e-02   -5.502e+01 
            -9.999e+01   -4.456e-03    4.999e+01 
            -7.262e-04   -4.992e+01   -2.497e+01 
        </DataArray> 
        <DataArray type="Float32" Name="Moments" NumberOfComponents="3" format="ascii"> 
             0.000e+00   0.000e+00   0.000e+00 
             1.301e-01  -1.341e-02   4.313e-02 
             6.156e-02  -1.470e-03  -6.714e-03 
            -1.912e-02  -1.635e-02  -5.324e-03 
        </DataArray> 
      </PointData> 
      <Points> 
        <DataArray type="Float32" Name="Points" NumberOfComponents="3" format="ascii"> 
            -3.000e+00    3.000e+00    3.000e+00 
            -3.000e+00    3.000e+00    0.000e+00 
             3.000e+00    3.000e+00    0.000e+00 
            -3.000e+00   -3.000e+00    0.000e+00 
        </DataArray> 
      </Points> 
      <Cells> 
        <DataArray type="Int64" Name="connectivity" format="ascii"> 
                0     1     0     2     0     3
                   </DataArray> 
        <DataArray type="Int64" Name="offsets" format="ascii"> 
                          2               4               6
        </DataArray> 
        <DataArray type="UInt8" Name="types" format="ascii"> 
             3  3  3
        </DataArray> 
      </Cells> 
    </Piece> 
  </UnstructuredGrid> 
</VTKFile> 
